LAMMPS data file via write_data, version 17 Nov 2016, timestep = 10000000

6102 atoms
15 atom types
5379 bonds
12 bond types
9454 angles
19 angle types
11410 dihedrals
24 dihedral types

0.0000000000000000e+00 2.9820000000000000e+01 xlo xhi
0.0000000000000000e+00 2.4594999999999999e+01 ylo yhi
-5.1000000000000000e+01 5.1000000000000000e+01 zlo zhi

Masses

1 12.011
2 14.007
3 12.011
4 12.011
5 12.011
6 1.008
7 1.008
8 1.008
9 12.011
10 1.008
11 12.011
12 18.998
13 32.066
14 14
15 15.999

Pair Coeffs # lj/cut/coul/long

1 0.07 3.55
2 0.17 3.25
3 0.07 3.55
4 0.07 3.55
5 0.065999 3.5
6 0.03 2.42
7 0.03 2.42
8 0.03 2.5
9 0.065999 3.5
10 0.03 2.5
11 0.065999 3.5
12 0.053 2.95
13 0.25 3.55
14 0.17 3.25
15 0.21 2.96

Bond Coeffs # harmonic

1 477.055 1.315
2 427.103 1.378
3 520.076 1.341
4 336.998 1.466
5 339.986 1.08
6 339.986 1.08
7 339.986 1.09
8 267.925 1.529
9 441.922 1.323
10 233.031 1.818
11 374.88 1.57
12 637.07 1.437

Angle Coeffs # harmonic

1 70.0048 126.4
2 70.0048 108
3 70.0048 125.6
4 70.0048 109.8
5 35.0024 125.1
6 70.0048 107.1
7 35.0024 122
8 35.0024 130.9
9 37.5 110.7
10 32.9947 107.8
11 58.3533 112.7
12 37.5 110.7
13 93.3317 107.1
14 82.935 111.7
15 91.3002 103.5
16 103.967 102.6
17 94.2878 113.6
18 115.798 118.5
19 80.1864 125.6

Dihedral Coeffs # opls

1 0 4.65105 0 0
2 0 4.65105 0 0
3 0 4.65105 0 0
4 0 4.65105 0 0
5 0 3 0 0
6 0 3 0 0
7 0 3 0 0
8 0 3 0 0
9 0 10.7505 0 0
10 0 10.7505 0 0
11 0 10.7505 0 0
12 0 0 0 0
13 0 0 0.124044 0
14 -1.25934 0 0 0
15 -1.70973 1.45947 0.189747 0
16 0 0 0.087715 0
17 0 0 0.3 0
18 0 0 0.315966 0
19 0 0 0.346797 0
20 7.83293 -2.49044 -0.763623 0
21 0 0 -0.003585 0
22 0 2 0 0
23 0 2.2 0 0
24 0 2.2 0 0

Atoms # full

281 2 1 -4.7384013194245794e-03 2.8400714786100072e+00 4.5384754873785887e-05 -4.9999998977557674e+01 0 0 0
282 2 1 -3.1362390761430045e-03 1.4199283006159831e+00 4.5527871311016995e-05 -4.9999999623057597e+01 0 0 0
283 2 1 -4.1821699858828314e-03 7.1007231458425790e-01 1.2297799359680286e+00 -4.9999999161901123e+01 0 0 0
284 2 1 -2.4175506309226922e-03 3.5499279025050754e+00 1.2297798476486639e+00 -5.0000002497929152e+01 0 0 0
285 2 1 -2.6882048016313221e-03 2.8400760664865961e+00 2.4595212487624507e+00 -5.0000009422176653e+01 0 0 0
286 2 1 -4.2228963835726219e-03 1.4199239025481118e+00 2.4595209513334209e+00 -4.9999998936541985e+01 0 0 0
287 2 1 -1.1285670304260456e-02 7.1007799794571236e-01 3.6892702996414601e+00 -4.9999999486276550e+01 0 0 0
288 2 1 -2.1640889565602826e-03 3.5499232317607183e+00 3.6892707623567684e+00 -5.0000014764567048e+01 0 0 0
289 2 1 -3.2777867453556899e-03 2.8400786821419430e+00 4.9190238642695796e+00 -4.9999996594910961e+01 0 0 0
290 2 1 -5.3370530519471207e-03 1.4199200833720071e+00 4.9190239692478599e+00 -4.9999999482049645e+01 0 0 0
291 2 1 -7.0692505675537731e-03 7.1007906303041413e-01 6.1487796483641883e+00 -5.0000001253021843e+01 0 0 0
292 2 1 -1.5849718910214484e-03 3.5499202428443200e+00 6.1487797073055601e+00 -5.0000009197569803e+01 0 0 0
293 2 1 1.6691846147755479e-03 2.8400786323487752e+00 7.3785362553238887e+00 -5.0000008329172317e+01 0 0 0
294 2 1 3.2453397997782795e-04 1.4199205175951006e+00 7.3785356218654341e+00 -4.9999998676042701e+01 0 0 0
321 2 1 -7.6186003153831342e-03 7.1000718962189451e+00 4.5135231590943905e-05 -4.9999999711959013e+01 0 0 0
322 2 1 -6.7752727046275947e-03 5.6799283910330631e+00 4.5042877422208606e-05 -4.9999999684126493e+01 0 0 0
323 2 1 -2.8841381823144956e-03 4.9700732542293018e+00 1.2297807415610151e+00 -5.0000003229750014e+01 0 0 0
325 2 1 5.5768765913470500e-04 7.1000777461580773e+00 2.4595205919305605e+00 -4.9999993882158158e+01 0 0 0
326 2 1 7.1553430421957473e-05 5.6799263657552288e+00 2.4595216205795896e+00 -5.0000036024368185e+01 0 0 0
327 2 1 9.1033578748529916e-04 4.9700800747971261e+00 3.6892723189416099e+00 -5.0000047206620593e+01 0 0 0
329 2 1 1.0591727421389793e-03 7.1000807317763455e+00 4.9190232603675907e+00 -5.0000001334691859e+01 0 0 0
330 2 1 6.4122378099718924e-04 5.6799222218563488e+00 4.9190257904328787e+00 -4.9999990060786331e+01 0 0 0
331 2 1 -3.5835766141948923e-04 4.9700788402630920e+00 6.1487803737690445e+00 -5.0000015598860486e+01 0 0 0
333 2 1 -4.4034593432316256e-03 7.1000790456381742e+00 7.3785350724782370e+00 -4.9999994628103025e+01 0 0 0
334 2 1 -2.0335932438313581e-03 5.6799211918753327e+00 7.3785363122624181e+00 -5.0000016136450718e+01 0 0 0
2271 93 2 1.4999999999999999e-01 1.6611385378673276e+00 3.2670479823669407e-01 -4.5995674143308975e+01 -49 -58 0
2272 93 3 -1.1000000000000000e-01 8.4959851911959661e-01 1.3163777050957286e+00 -4.6463309473377038e+01 -49 -58 0
2275 93 4 -1.3000000000000000e-01 2.7733445873619207e+00 9.8270072324250313e-01 -4.5585275297434841e+01 -49 -58 0
2273 93 2 1.4999999999999999e-01 1.3785630349077997e+00 2.4957824394714256e+00 -4.6334728240528015e+01 -49 -58 0
2274 93 4 -1.3000000000000000e-01 2.6287798907274951e+00 2.3155083991223782e+00 -4.5749083927307616e+01 -49 -58 0
2278 93 5 -1.7000000000000001e-01 5.8397640966273323e-01 3.8057682732112985e+00 -4.6486423117435010e+01 -49 -58 0
2279 93 7 2.0999999999999999e-01 3.2116753394361308e+00 3.1412799804880627e+00 -4.5368644491550874e+01 -49 -58 0
2289 93 10 5.9999999999999998e-02 2.4319863919550775e+00 5.1197336120044126e+00 -4.6893016208168206e+01 -49 -58 0
2284 93 9 -5.0000000000000003e-02 1.5399901143144759e+00 4.9876343856016225e+00 -4.6280649952181527e+01 -49 -58 0
2288 93 10 5.9999999999999998e-02 1.8918983982697284e+00 5.0655855807210219e+00 -4.5251969259055187e+01 -49 -58 0
3730 170 12 -1.6000000000000000e-01 5.1069755754463140e+00 5.3832770896846442e+00 -4.5615774780458992e+01 -49 -58 0
2287 93 10 5.9999999999999998e-02 1.0257084529915812e+00 5.9393246985753922e+00 -4.6414440434805812e+01 -49 -58 0
3727 170 15 -5.3000000000000003e-01 3.6585194192163728e+00 4.2223841440520617e+00 -4.3243049070049672e+01 -49 -58 0
3729 170 11 3.4999999999999998e-01 4.8859380431406310e+00 6.0712033346633278e+00 -4.4516466616489424e+01 -49 -58 0
3732 170 12 -1.6000000000000000e-01 3.8622603939722575e+00 6.8412748824690963e+00 -4.4628740605832853e+01 -49 -58 0
4377 213 12 -1.6000000000000000e-01 5.5635802825012100e+00 2.0524955699824883e+00 -4.4895576863642525e+01 -49 -57 0
5483 287 15 -5.3000000000000003e-01 1.1971973232083424e+00 8.1438609147685970e-01 -4.2818519850432828e+01 -49 -57 0
3233 143 8 1.3000000000000000e-01 5.1202838409194840e+00 1.9913457155888867e+00 -4.2789996387711888e+01 -49 -58 0
4375 213 12 -1.6000000000000000e-01 5.9033672091409208e+00 2.5028093018480875e+00 -4.6886078030948589e+01 -49 -57 0
4374 213 11 3.4999999999999998e-01 6.5339891850315999e+00 2.3333965488164976e+00 -4.5735807331469246e+01 -49 -57 0
3731 170 12 -1.6000000000000000e-01 5.9678197730428639e+00 6.8242794430517568e+00 -4.4422851079484815e+01 -49 -58 0
4376 213 12 -1.6000000000000000e-01 7.0106703407866160e+00 3.5173657067312716e+00 -4.5438117443298367e+01 -49 -57 0
2280 93 7 2.0999999999999999e-01 3.5245378048829812e+00 4.0603096748568623e-01 -4.5066082906984029e+01 -49 -58 0
781 14 8 1.3000000000000000e-01 6.3279199960349963e-01 7.4744536827877450e+00 -4.3443292884888415e+01 -50 -58 0
3726 170 13 1.0200000000000000e+00 4.8511073424258360e+00 5.0308691473109723e+00 -4.3048592325700653e+01 -49 -58 0
3728 170 15 -5.3000000000000003e-01 6.1198317107819680e+00 4.4147445982539084e+00 -4.3007899062368104e+01 -49 -58 0
775 14 5 -1.7000000000000001e-01 2.2586610057240517e-01 7.0512106884952699e+00 -4.2524937490834525e+01 -50 -58 0
2285 93 8 1.3000000000000000e-01 9.7546095320891146e-02 3.8322298598366147e+00 -4.7461505309816474e+01 -49 -58 0
324 2 1 -1.5798945799827655e-03 7.8099280805466433e+00 1.2297790180290067e+00 -4.9999999057873346e+01 0 0 0
328 2 1 2.9742352249770834e-03 7.8099218287903280e+00 3.6892710157378681e+00 -5.0000002413431908e+01 0 0 0
332 2 1 -1.2004606483860380e-03 7.8099200969858638e+00 6.1487795458686261e+00 -4.9999997772409095e+01 0 0 0
361 2 1 1.2201275461412687e-05 1.1360071380170229e+01 4.5367317335759152e-05 -4.9999999048111270e+01 0 0 0
362 2 1 -4.5502856606453591e-04 9.9399284624290818e+00 4.5593842241943854e-05 -4.9999999639961644e+01 0 0 0
363 2 1 3.7480747948495548e-03 9.2300726990223119e+00 1.2297801649269564e+00 -4.9999998613353640e+01 0 0 0
364 2 1 -1.1267264476864656e-03 1.2069927427062897e+01 1.2297801730258973e+00 -4.9999999776223461e+01 0 0 0
365 2 1 6.2898018898885995e-04 1.1360075635824337e+01 2.4595203372139252e+00 -5.0000014366267564e+01 0 0 0
366 2 1 5.1853934051326652e-03 9.9399237486531469e+00 2.4595209359533077e+00 -5.0000011719705739e+01 0 0 0
367 2 1 3.5708217557489713e-03 9.2300780326516723e+00 3.6892700273339170e+00 -4.9999995528239324e+01 0 0 0
368 2 1 -2.2915461455759439e-03 1.2069921456622668e+01 3.6892693446417604e+00 -4.9999994219489864e+01 0 0 0
369 2 1 -1.9845397427496500e-03 1.1360081474292738e+01 4.9190246560754858e+00 -5.0000017216668844e+01 0 0 0
370 2 1 6.4929246945563256e-04 9.9399216563218555e+00 4.9190233336232234e+00 -5.0000008316457688e+01 0 0 0
371 2 1 -1.4127903924273698e-03 9.2300790006405311e+00 6.1487809158021971e+00 -5.0000011451584534e+01 0 0 0
372 2 1 -6.0014634356109087e-03 1.2069926653116033e+01 6.1487810916617684e+00 -5.0000073250955339e+01 0 0 0
373 2 1 -6.0030177256950017e-03 1.1360083726355150e+01 7.3785413494682741e+00 -5.0000090344536090e+01 0 0 0
374 2 1 -4.0003039452973493e-03 9.9399215481109486e+00 7.3785383072198512e+00 -5.0000069394048651e+01 0 0 0
402 2 1 -3.0060701474183672e-05 1.4199928483730829e+01 4.5103385672693263e-05 -4.9999999321333654e+01 0 0 0
403 2 1 -1.1896054581085548e-03 1.3490072240509143e+01 1.2297793093702127e+00 -5.0000001693659719e+01 0 0 0
406 2 1 -2.8372018242149920e-03 1.4199922839256999e+01 2.4595202749347358e+00 -5.0000008602684041e+01 0 0 0
407 2 1 -5.2469625915937870e-03 1.3490077870082059e+01 3.6892683881449937e+00 -5.0000002130681580e+01 0 0 0
410 2 1 -8.5872985021889954e-03 1.4199921435908880e+01 4.9190206067773161e+00 -4.9999992109841401e+01 0 0 0
411 2 1 -1.0224023753576526e-02 1.3490085033945984e+01 6.1487791641916747e+00 -5.0000026171192459e+01 0 0 0
414 2 1 -1.1918526629050652e-02 1.4199923501423463e+01 7.3785380197415318e+00 -5.0000053377678775e+01 0 0 0
4373 213 15 -5.3000000000000003e-01 8.1115872902756614e+00 7.8609887499544773e-01 -4.4483846398936812e+01 -49 -57 0
4371 213 13 1.0200000000000000e+00 7.7955447073508646e+00 1.0584897837683365e+00 -4.5840179080452629e+01 -49 -57 0
4372 213 15 -5.3000000000000003e-01 8.8494703923587750e+00 1.6752418312139616e+00 -4.6574858740488018e+01 -49 -57 0
4406 215 12 -1.6000000000000000e-01 1.2035510368386751e+01 3.6926840727395245e+00 -4.3388379509128619e+01 -50 -58 0
3352 149 10 5.9999999999999998e-02 1.2935240281378070e+01 1.9802936053814715e+00 -4.5792584898873706e+01 -50 -57 0
3348 149 9 -5.0000000000000003e-02 1.2575523489418616e+01 1.0484872271734234e+00 -4.6228979986165548e+01 -50 -57 0
4407 215 12 -1.6000000000000000e-01 1.3955638162464128e+01 4.1242933468432037e+00 -4.4390131503012327e+01 -50 -58 0
3353 149 10 5.9999999999999998e-02 1.3441894806318659e+01 5.2653640710212180e-01 -4.6635265587050554e+01 -50 -57 0
4404 215 11 3.4999999999999998e-01 1.2806496030450921e+01 4.5908438419515720e+00 -4.3928339330682398e+01 -50 -58 0
4405 215 12 -1.6000000000000000e-01 1.2151543253032873e+01 4.9252603400579487e+00 -4.5074496912847515e+01 -50 -58 0
4401 215 13 1.0200000000000000e+00 1.3017784100412982e+01 5.9572937586086221e+00 -4.2802609704206105e+01 -50 -58 0
4403 215 15 -5.3000000000000003e-01 1.4045243901384886e+01 6.8020579525552307e+00 -4.3425001753217586e+01 -50 -58 0
2889 125 8 1.3000000000000000e-01 1.3433435585658478e+01 8.0883599725423228e+00 -4.6949653631172062e+01 -50 -58 0
4400 215 15 -5.3000000000000003e-01 1.1489663665988834e+01 8.1176911814178911e+00 -4.4411480557144159e+01 -50 -58 0
4397 215 13 1.0200000000000000e+00 1.0920961027713354e+01 7.8225928005908001e+00 -4.3080443539044694e+01 -50 -58 0
4399 215 15 -5.3000000000000003e-01 9.4748402556248568e+00 7.7587314754070986e+00 -4.3030780941821583e+01 -50 -58 0
3349 149 8 1.3000000000000000e-01 1.0838235241078062e+01 7.4455147412165812e-01 -4.4994604743401595e+01 -50 -57 0
3351 149 10 5.9999999999999998e-02 1.1884445737019272e+01 1.2392333161262139e+00 -4.7050032552639117e+01 -50 -57 0
3350 149 8 1.3000000000000000e-01 1.2516991941160841e+01 5.8740911063971302e-01 -4.4286989292374805e+01 -50 -57 0
3342 149 5 -1.7000000000000001e-01 1.1846390692082650e+01 3.4713735904562670e-01 -4.5112012592260015e+01 -50 -57 0
1995 78 7 2.0999999999999999e-01 8.8109263423209363e+00 2.7238200744724943e+00 -4.3106707819736300e+01 -50 -57 0
2888 125 7 2.0999999999999999e-01 1.3850086146102962e+01 5.4512661141079475e+00 -4.7019029585668974e+01 -50 -58 0
2931 127 8 1.3000000000000000e-01 7.9780496559801737e+00 8.0304828924053329e+00 -4.5315055430273937e+01 -50 -58 0
2883 125 4 -1.3000000000000000e-01 1.4848694207939740e+01 5.7207545671965070e+00 -4.6708292075476500e+01 -50 -58 0
4962 252 12 -1.6000000000000000e-01 2.1537018178514895e+00 8.3839870867701389e+00 -4.6365087071810741e+01 -49 -58 0
4960 252 12 -1.6000000000000000e-01 2.8501487430512551e+00 9.3447437661289072e+00 -4.4483857746298021e+01 -49 -58 0
295 2 1 -1.2917255693199190e-03 7.1007943929217510e-01 8.6082926422358454e+00 -5.0000004182241447e+01 0 0 0
296 2 1 -1.3128834627730162e-03 3.5499202247495241e+00 8.6082924000834602e+00 -5.0000010138842363e+01 0 0 0
297 2 1 2.5184218806774362e-03 2.8400791650005370e+00 9.8380485616194235e+00 -4.9999999999695461e+01 0 0 0
298 2 1 6.0887331125039452e-03 1.4199203819655313e+00 9.8380479015218523e+00 -5.0000005841707868e+01 0 0 0
299 2 1 1.5784866988553126e-02 7.1007958736618904e-01 1.1067804027029300e+01 -5.0000000010800548e+01 0 0 0
300 2 1 4.2177631689700500e-03 3.5499201347900913e+00 1.1067804264924520e+01 -5.0000004866601330e+01 0 0 0
301 2 1 8.2884994767748535e-03 2.8400794249947454e+00 1.2297560515592664e+01 -5.0000016047949970e+01 0 0 0
302 2 1 9.8995695809283215e-03 1.4199210094848085e+00 1.2297560071522716e+01 -5.0000001822930663e+01 0 0 0
303 2 1 3.7867262667649840e-03 7.1007945187526500e-01 1.3527316353836964e+01 -4.9999999342186342e+01 0 0 0
304 2 1 3.8641989558197971e-03 3.5499209725202321e+00 1.3527316298497107e+01 -4.9999997036956103e+01 0 0 0
305 2 1 2.3493613907410488e-03 2.8400789383453096e+00 1.4757071576284359e+01 -4.9999996924202442e+01 0 0 0
306 2 1 2.2405230099114661e-03 1.4199204072012206e+00 1.4757072055801526e+01 -4.9999999179111910e+01 0 0 0
307 2 1 4.9551813158468412e-03 7.1007922625097553e-01 1.5986827996481450e+01 -4.9999999223881900e+01 0 0 0
308 2 1 -1.2162855865247802e-03 3.5499204954758792e+00 1.5986827447875687e+01 -5.0000014291087808e+01 0 0 0
335 2 1 -3.0912537926741442e-03 4.9700791163385807e+00 8.6082916599567429e+00 -5.0000010581673607e+01 0 0 0
337 2 1 -8.3623968169792562e-03 7.1000786008717052e+00 9.8380501318312543e+00 -5.0000059265663083e+01 0 0 0
338 2 1 -5.6447633555647969e-03 5.6799195644132263e+00 9.8380487357457458e+00 -4.9999996529213441e+01 0 0 0
339 2 1 -2.5447093992047110e-03 4.9700792866925685e+00 1.1067804393352857e+01 -5.0000003002180208e+01 0 0 0
341 2 1 -1.6477838631505290e-03 7.1000787827624263e+00 1.2297560091399468e+01 -5.0000001041960566e+01 0 0 0
342 2 1 -1.8379331491578358e-03 5.6799206356955283e+00 1.2297560118734474e+01 -4.9999999990384687e+01 0 0 0
343 2 1 1.2549773948743669e-04 4.9700794087687559e+00 1.3527316123902832e+01 -4.9999998886447017e+01 0 0 0
345 2 1 7.3846181589206110e-03 7.1000796923384240e+00 1.4757071873784813e+01 -5.0000002336556896e+01 0 0 0
346 2 1 -1.5316626048802213e-03 5.6799208110616908e+00 1.4757071449397371e+01 -4.9999996472157534e+01 0 0 0
347 2 1 -4.4268595881576181e-03 4.9700794386289884e+00 1.5986827453083601e+01 -5.0000012769184210e+01 0 0 0
4957 252 15 -5.3000000000000003e-01 4.8997697138215091e-01 1.0911600851018255e+01 -4.7065838006802309e+01 -49 -58 0
4956 252 13 1.0200000000000000e+00 7.5501822181661848e-01 1.0553574489767955e+01 -4.5706223727877813e+01 -49 -58 0
4959 252 11 3.4999999999999998e-01 2.3617567274415978e+00 9.5815826383451146e+00 -4.5754581230516422e+01 -49 -58 0
4953 252 14 -6.6000000000000003e-01 1.0453828195034547e+00 1.1780544871394632e+01 -4.4769023704359796e+01 -49 -58 0
4952 252 13 1.0200000000000000e+00 1.9067236488260411e+00 1.3077566471281996e+01 -4.5235783094335879e+01 -49 -58 0
4955 252 15 -5.3000000000000003e-01 2.6136985592168696e+00 1.3651204136106186e+01 -4.4088198214966397e+01 -49 -58 0
4961 252 12 -1.6000000000000000e-01 3.2395856319573522e+00 1.0201795527835296e+01 -4.6451638135783227e+01 -49 -58 0
4954 252 15 -5.3000000000000003e-01 2.6324267727586741e+00 1.2886464738526263e+01 -4.6463495798733298e+01 -49 -58 0
4948 252 11 3.4999999999999998e-01 7.2933156820625211e-01 1.4424116986406229e+01 -4.5752164110217748e+01 -49 -58 0
2921 127 4 -1.3000000000000000e-01 5.6768966076533429e+00 1.1412577839543928e+01 -4.4503191413252821e+01 -50 -58 0
4949 252 12 -1.6000000000000000e-01 1.3170133953542202e+00 1.5480703809888377e+01 -4.6302548502367884e+01 -49 -58 0
742 12 8 1.3000000000000000e-01 4.8176814808001618e+00 1.4425845063910616e+01 -4.5829650769553396e+01 -49 -58 0
737 12 5 -1.7000000000000001e-01 5.2812956241324382e+00 1.5394673996510123e+01 -4.6015479726965346e+01 -49 -58 0
744 12 8 1.3000000000000000e-01 6.2653663291964170e+00 1.5301431640821901e+01 -4.5556120760976839e+01 -49 -58 0
2926 127 7 2.0999999999999999e-01 4.9138750297925382e+00 1.2172404807626437e+01 -4.4420360206310725e+01 -50 -58 0
743 12 8 1.3000000000000000e-01 5.3778913674758790e+00 1.5403216334519040e+01 -4.7101157493012515e+01 -49 -58 0
741 12 7 2.0999999999999999e-01 3.3362082659918735e+00 1.5795183299559598e+01 -4.3972967933173258e+01 -49 -58 0
2925 127 7 2.0999999999999999e-01 6.3358466031516913e+00 1.1048385985978541e+01 -4.6649839019473021e+01 -50 -58 0
2920 127 4 -1.3000000000000000e-01 6.3522628067784295e+00 1.0858104175490340e+01 -4.5586860545452701e+01 -50 -58 0
2919 127 2 1.4999999999999999e-01 7.0957879598102780e+00 9.8177144344669625e+00 -4.5098382077010683e+01 -50 -58 0
2932 127 8 1.3000000000000000e-01 7.2144643370121821e+00 8.5179788220401615e+00 -4.6742841032841334e+01 -50 -58 0
2918 127 3 -1.1000000000000000e-01 7.0841666947790394e+00 9.8732072296986200e+00 -4.3781480407698233e+01 -50 -58 0
4950 252 12 -1.6000000000000000e-01 7.1205180536848878e-02 1.4874025070522027e+01 -4.4673642984673464e+01 -49 -58 0
2917 127 2 1.4999999999999999e-01 6.2180688563848241e+00 1.0751089680607434e+01 -4.3396812390382024e+01 -50 -58 0
2890 125 8 1.3000000000000000e-01 1.4032012927197464e+01 8.3814367647564456e+00 -4.5290753639704754e+01 -50 -58 0
2924 127 5 -1.7000000000000001e-01 7.8452931554736205e+00 8.9100148046870373e+00 -4.5945054876146159e+01 -50 -58 0
2933 127 10 5.9999999999999998e-02 9.5304048636954253e+00 8.7913016208394641e+00 -4.7215936978031444e+01 -50 -58 0
2935 127 10 5.9999999999999998e-02 9.8700431678316800e+00 9.6595779772176336e+00 -4.5691062656677097e+01 -50 -58 0
2930 127 9 -5.0000000000000003e-02 9.1317756287497840e+00 9.4822594531894637e+00 -4.6473123511581974e+01 -50 -58 0
2934 127 10 5.9999999999999998e-02 8.8972919564966588e+00 1.0457192853437217e+01 -4.6900466617196287e+01 -50 -58 0
4940 251 15 -5.3000000000000003e-01 8.1325820525239170e+00 1.4414789932690784e+01 -4.6852212346715000e+01 -50 -58 0
2923 127 6 2.0999999999999999e-01 7.6555420086165196e+00 9.2682702801433692e+00 -4.3093017277816514e+01 -50 -58 0
336 2 1 -7.3419830417980154e-03 7.8099175054637726e+00 8.6082924148093021e+00 -5.0000001775338980e+01 0 0 0
340 2 1 -5.5193257473482565e-03 7.8099205358236272e+00 1.1067804305739063e+01 -5.0000000740662990e+01 0 0 0
344 2 1 7.5690989655939761e-03 7.8099208597100844e+00 1.3527316401575721e+01 -4.9999999743690964e+01 0 0 0
348 2 1 9.0823492001524120e-03 7.8099222427587893e+00 1.5986827870577510e+01 -5.0000065905314450e+01 0 0 0
375 2 1 -6.0922197073846633e-03 9.2300758538432568e+00 8.6082945608848149e+00 -5.0000091348812134e+01 0 0 0
376 2 1 -4.0126701695781062e-03 1.2069923920453858e+01 8.6082973030509500e+00 -4.9999986327371865e+01 0 0 0
377 2 1 -3.4105476162459491e-03 1.1360077953875912e+01 9.8380510253481290e+00 -4.9999998630946983e+01 0 0 0
378 2 1 -5.0863395012856827e-03 9.9399205904089278e+00 9.8380496631177099e+00 -4.9999997346840104e+01 0 0 0
379 2 1 -2.9798917985071976e-03 9.2300792423920814e+00 1.1067804192324225e+01 -4.9999998524159601e+01 0 0 0
380 2 1 -2.4398471793661168e-03 1.2069921045195303e+01 1.1067804563577957e+01 -4.9999998511789542e+01 0 0 0
381 2 1 4.5853228274158738e-03 1.1360079314569584e+01 1.2297559934668813e+01 -4.9999998816636612e+01 0 0 0
382 2 1 5.8299027553155719e-03 9.9399216088377393e+00 1.2297560134240552e+01 -4.9999998777690223e+01 0 0 0
383 2 1 1.0196443516391160e-02 9.2300799592333505e+00 1.3527316384259738e+01 -5.0000005125345950e+01 0 0 0
384 2 1 4.2583943626325806e-03 1.2069920402715994e+01 1.3527315669862544e+01 -4.9999998784844031e+01 0 0 0
385 2 1 6.5102169038666613e-03 1.1360079535336581e+01 1.4757070563763687e+01 -4.9999998031202175e+01 0 0 0
386 2 1 8.9967180868295825e-03 9.9399209875555190e+00 1.4757071101311574e+01 -5.0000011096838676e+01 0 0 0
387 2 1 5.7681378862874744e-03 9.2300804762994044e+00 1.5986827614550661e+01 -4.9999997518396441e+01 0 0 0
388 2 1 1.2750820091212854e-03 1.2069919579759970e+01 1.5986828203931966e+01 -4.9999999266545522e+01 0 0 0
415 2 1 -2.9702762979812707e-03 1.3490083191534580e+01 8.6082920743388289e+00 -5.0000002324208239e+01 0 0 0
418 2 1 -1.3304049002428103e-03 1.4199920842943634e+01 9.8380491274040516e+00 -4.9999997669343266e+01 0 0 0
419 2 1 -1.4780043688330956e-03 1.3490079162025600e+01 1.1067804040320599e+01 -4.9999998828615297e+01 0 0 0
422 2 1 -2.2618983261477187e-03 1.4199920989477199e+01 1.2297559796760519e+01 -5.0000001160168615e+01 0 0 0
423 2 1 -3.2095623334424585e-03 1.3490078926434794e+01 1.3527315362026734e+01 -4.9999996783469143e+01 0 0 0
426 2 1 -5.9613272949557003e-03 1.4199920387457984e+01 1.4757071019470388e+01 -5.0000009399148801e+01 0 0 0
427 2 1 7.6610950561554862e-04 1.3490078431487944e+01 1.5986828023779029e+01 -5.0000048522848353e+01 0 0 0
4936 251 12 -1.6000000000000000e-01 8.7490334530180309e+00 1.2551082788962766e+01 -4.4786396738111229e+01 -50 -58 0
4934 251 12 -1.6000000000000000e-01 8.6684458035795657e+00 1.4268781756526058e+01 -4.3813822270568480e+01 -50 -58 0
4933 251 11 3.4999999999999998e-01 9.3925265864888274e+00 1.3711311191810566e+01 -4.4731018241292567e+01 -50 -58 0
4937 251 13 1.0200000000000000e+00 9.4779547447142374e+00 1.4602905478786113e+01 -4.6360051681719547e+01 -50 -58 0
4935 251 12 -1.6000000000000000e-01 1.0584536156837592e+01 1.3319763126986389e+01 -4.4223955236011676e+01 -50 -58 0
4939 251 15 -5.3000000000000003e-01 1.0492662554362736e+01 1.3823921796476814e+01 -4.7022286756087716e+01 -50 -58 0
3146 139 3 -1.1000000000000000e-01 1.3222003395334500e+01 1.5510153707158990e+01 -4.4333178421509679e+01 -50 -58 0
3151 139 6 2.0999999999999999e-01 1.2471738092656594e+01 1.6023552664981207e+01 -4.4916207903480100e+01 -50 -58 0
3145 139 2 1.4999999999999999e-01 1.3560423472936202e+01 1.5565151638035513e+01 -4.3046056394817569e+01 -50 -58 0
4938 251 14 -6.6000000000000003e-01 9.9211683468153904e+00 1.6043471166635058e+01 -4.5985462759567170e+01 -50 -58 0
3158 139 9 -5.0000000000000003e-02 1.3200137051191525e+01 1.2569371268618450e+01 -4.6374890363750261e+01 -50 -58 0
3162 139 10 5.9999999999999998e-02 1.3778923684240832e+01 1.1864778006905485e+01 -4.5777685097908751e+01 -50 -58 0
3163 139 10 5.9999999999999998e-02 1.2192149168264352e+01 1.2412863920257902e+01 -4.5990747503270775e+01 -50 -58 0
3159 139 8 1.3000000000000000e-01 1.2976184182832064e+01 1.4576156272823695e+01 -4.6831371606099893e+01 -50 -58 0
3147 139 2 1.4999999999999999e-01 1.3867089148017730e+01 1.4506478691083766e+01 -4.4870589115885828e+01 -50 -58 0
3152 139 5 -1.7000000000000001e-01 1.3705781267470350e+01 1.3966083200359794e+01 -4.6298831664124521e+01 -50 -58 0
3160 139 8 1.3000000000000000e-01 1.4635314146660955e+01 1.4031440265896993e+01 -4.6864337682912023e+01 -50 -58 0
3149 139 4 -1.3000000000000000e-01 1.4462023993397516e+01 1.4590241033500615e+01 -4.2748301149404313e+01 -50 -58 0
3161 139 10 5.9999999999999998e-02 1.3317238851184523e+01 1.2184064465560864e+01 -4.7387770284075849e+01 -50 -58 0
2884 125 5 -1.7000000000000001e-01 1.4318424545213606e+01 8.2499475126836117e+00 -4.6334199340061417e+01 -50 -58 0
2891 125 8 1.3000000000000000e-01 1.4787438512807388e+01 9.2136744534598964e+00 -4.6532583475606138e+01 -50 -58 0
3148 139 4 -1.3000000000000000e-01 1.4620977413637542e+01 1.3903382794665225e+01 -4.3877430496304754e+01 -50 -58 0
4368 213 14 -6.6000000000000003e-01 7.2182555966631927e+00 2.4356411848472280e+01 -4.6567194848692814e+01 -49 -58 0
736 12 4 -1.3000000000000000e-01 3.5769487291500712e+00 1.6637569412583318e+01 -4.4604497485233850e+01 -49 -58 0
732 12 2 1.4999999999999999e-01 4.4733600395450255e+00 1.6579000299661622e+01 -4.5635893238473749e+01 -49 -58 0
4370 213 15 -5.3000000000000003e-01 5.8104797328476883e+00 2.3590810361839857e+01 -4.4638155359499606e+01 -49 -58 0
4367 213 13 1.0200000000000000e+00 6.1689631682930441e+00 2.3318474784677960e+01 -4.5993090072596274e+01 -49 -58 0
4369 213 15 -5.3000000000000003e-01 5.1898067506632071e+00 2.2897316584446276e+01 -4.6946156874804522e+01 -49 -58 0
748 12 10 5.9999999999999998e-02 1.0621771754904088e+00 1.9749988508769444e+01 -4.5690196021180569e+01 -49 -58 0
309 2 1 -5.2711225009478314e-03 2.8400793694956183e+00 1.7216583469631484e+01 -5.0000001374751200e+01 0 0 0
310 2 1 -3.6443815814563595e-03 1.4199204753111958e+00 1.7216583822310572e+01 -4.9999998499527585e+01 0 0 0
311 2 1 -4.5711106203676737e-03 7.1007889926210743e-01 1.8446339683664132e+01 -4.9999998983507233e+01 0 0 0
312 2 1 -6.7885341288752730e-03 3.5499207238935515e+00 1.8446339741727513e+01 -5.0000008509061125e+01 0 0 0
313 2 1 -6.7425900982246928e-03 2.8400783293500393e+00 1.9676093870003601e+01 -4.9999999104888438e+01 0 0 0
314 2 1 -6.1637119504179211e-03 1.4199213222357341e+00 1.9676093720328872e+01 -5.0000000122933535e+01 0 0 0
315 2 1 -8.9707126085037531e-03 7.1007589552762596e-01 2.0905842981853024e+01 -4.9999999575545004e+01 0 0 0
316 2 1 -3.1701034493337860e-03 3.5499241750115380e+00 2.0905843072654445e+01 -4.9999999649174647e+01 0 0 0
317 2 1 -2.7570745259187100e-03 2.8400723347271057e+00 2.2135584209599141e+01 -4.9999999670656138e+01 0 0 0
318 2 1 -7.9794832391806153e-03 1.4199275332150025e+00 2.2135584075300585e+01 -4.9999999932658433e+01 0 0 0
319 2 1 -1.3728922794665201e-02 7.1007142943780599e-01 2.3365318230511487e+01 -5.0000000002395538e+01 0 0 0
320 2 1 3.9192895020997535e-03 3.5499283346364634e+00 2.3365318164320410e+01 -4.9999999494874878e+01 0 0 0
349 2 1 5.8872859096622092e-03 7.1000795288254057e+00 1.7216583950573252e+01 -5.0000004508031175e+01 0 0 0
350 2 1 -4.5758090340807418e-03 5.6799206667385977e+00 1.7216583487602556e+01 -4.9999999011134697e+01 0 0 0
351 2 1 -7.5690351193933112e-03 4.9700790574674913e+00 1.8446339673698290e+01 -5.0000002617113182e+01 0 0 0
353 2 1 2.9380351585639123e-03 7.1000782027515266e+00 1.9676094158016642e+01 -4.9999999394982517e+01 0 0 0
354 2 1 -2.4356883328240883e-03 5.6799216988520094e+00 1.9676093952000485e+01 -4.9999998693414391e+01 0 0 0
355 2 1 9.5615536885603793e-04 4.9700759878993450e+00 2.0905842969216650e+01 -4.9999999426461770e+01 0 0 0
357 2 1 5.4577548704880970e-03 7.1000724084772129e+00 2.2135584235612804e+01 -4.9999999433144005e+01 0 0 0
358 2 1 9.8404410286556405e-03 5.6799277275794600e+00 2.2135584144772675e+01 -4.9999999618755965e+01 0 0 0
359 2 1 1.9114036022873072e-02 4.9700714792090439e+00 2.3365318063095653e+01 -5.0000000105026338e+01 0 0 0
749 12 10 5.9999999999999998e-02 1.6947290328493545e+00 2.0916088200265204e+01 -4.6933076334558834e+01 -49 -58 0
745 12 9 -5.0000000000000003e-02 1.8553891335976449e+00 1.9977719465516984e+01 -4.6402272792845402e+01 -49 -58 0
740 12 7 2.0999999999999999e-01 2.4807541096182613e+00 1.8312559963619783e+01 -4.3815229823202301e+01 -49 -58 0
735 12 4 -1.3000000000000000e-01 3.1167144605613637e+00 1.7878518922187816e+01 -4.4572569086937570e+01 -49 -58 0
750 12 10 5.9999999999999998e-02 1.7795594014961096e+00 1.9194881456799148e+01 -4.7156934530631069e+01 -49 -58 0
734 12 2 1.4999999999999999e-01 3.7066470592922731e+00 1.8606038549118882e+01 -4.5496322981319246e+01 -49 -58 0
746 12 8 1.3000000000000000e-01 3.4907251064413791e+00 2.0591971600991556e+01 -4.5026519500578310e+01 -49 -58 0
739 12 5 -1.7000000000000001e-01 3.3332238582115075e+00 1.9942553515076266e+01 -4.5887652176547441e+01 -49 -58 0
747 12 8 1.3000000000000000e-01 4.0505317107662684e+00 2.0373313488589250e+01 -4.6586233079991970e+01 -49 -58 0
733 12 3 -1.1000000000000000e-01 4.5679280683161707e+00 1.7795479035385721e+01 -4.6150277847062192e+01 -49 -58 0
738 12 6 2.0999999999999999e-01 5.2443658516000955e+00 1.8008656941012635e+01 -4.6964763621160330e+01 -49 -58 0
4365 213 12 -1.6000000000000000e-01 6.4188992594234398e+00 2.0799201574300124e+01 -4.5309138121883869e+01 -49 -58 0
4601 228 12 -1.6000000000000000e-01 1.1406668924102095e+00 2.0941737192870047e+01 -4.3358632472993854e+01 -49 -59 0
4602 228 12 -1.6000000000000000e-01 2.5318267568400969e+00 2.2527681269922109e+01 -4.3224948930042004e+01 -49 -59 0
4363 213 11 3.4999999999999998e-01 7.1682256001951945e+00 2.1733919912272437e+01 -4.5788595195877960e+01 -49 -58 0
2276 93 5 -1.7000000000000001e-01 1.4669020969093920e+00 2.3467730032574721e+01 -4.5918885347790827e+01 -49 -59 0
2281 93 8 1.3000000000000000e-01 9.3229310044790981e-01 2.3162546222650469e+01 -4.5019354340571454e+01 -49 -59 0
2283 93 8 1.3000000000000000e-01 2.4123309766777656e+00 2.2955686294240586e+01 -4.5739789215417495e+01 -49 -59 0
913 21 8 1.3000000000000000e-01 6.5855305769918111e+00 2.1298945095164587e+01 -4.2670460466024224e+01 -50 -58 0
4597 228 15 -5.3000000000000003e-01 4.0188096388573245e+00 2.0097558433398518e+01 -4.2648353214474078e+01 -49 -59 0